# vtk DataFile Version 5.1
vtk output
ASCII
DATASET STRUCTURED_POINTS
EXTENT 0 59 0 59 0 59
SPACING 0.0338983 0.0338983 0.0338983
ORIGIN -1 -1 -1
POINT_DATA 216000
SCALARS scalars double
LOOKUP_TABLE default
4.4384461944e-05 4.4384461944e-05 4.4384461944e-05 4.4384461944e-05 4.4384461944e-05 4.4384461944e-05 4.4384461944e-05 4.4384461944e-05 4.4384461944e-05 
4.4384461944e-05 4.4384461944e-05 4.4384461944e-05 4.4384461944e-05 4.4384461944e-05 4.4384461944e-05 4.4384461944e-05 4.4384461944e-05 4.4384461944e-05 
4.4384461944e-05 4.4384461944e-05 4.4384461944e-05 4.4384461944e-05 4.4384461944e-05 4.4384461944e-05 4.4384461944e-05 4.4384461944e-05 4.4384461944e-05 
4.4384461944e-05 4.4384461944e-05 4.4384461944e-05 4.4384461944e-05 4.4384461944e-05 4.4384461944e-05 4.4384461944e-05 4.4384461944e-05 4.4384461944e-05 
4.4384461944e-05 4.4384461944e-05 4.4384461944e-05 4.4384461944e-05 4.4384461944e-05 4.4384461944e-05 4.4384461944e-05 4.4384461944e-05 4.4384461944e-05 
4.4384461944e-05 4.4384461944e-05 4.4384461944e-05 4.4384461944e-05 4.4384461944e-05 4.4384461944e-05 4.4384461944e-05 4.4384461944e-05 4.4384461944e-05 
4.4384461944e-05 4.4384461944e-05 4.4384461944e-05 4.4384461944e-05 4.4384461944e-05 4.4384461944e-05 4.4384461944e-05 4.4384461944e-05 4.4384461944e-05 
4.4384461944e-05 4.4384461944e-05 4.4384461944e-05 4.4384461944e-05 4.4384461944e-05 4.4384461944e-05 4.4384461944e-05 4.4384461944e-05 4.4384461944e-05 
4.4384461944e-05 4.4384461944e-05 4.4384461944e-05 4.4384461944e-05 4.4384461944e-05 4.4384461944e-05 4.4384461944e-05 4.4384461944e-05 4.4384461944e-05 
4.4384461944e-05 4.4384461944e-05 4.4384461944e-05 4.4384461944e-05 4.4384461944e-05 4.4384461944e-05 4.4384461944e-05 4.4384461944e-05 4.4384461944e-05 
4.4384461944e-05 4.4384461944e-05 4.4384461944e-05 4.4384461944e-05 4.4384461944e-05 4.4384461944e-05 4.4384461944e-05 4.4384461944e-05 4.4384461944e-05 
4.4384461944e-05 4.4384461944e-05 4.4384461944e-05 4.4384461944e-05 4.4384461944e-05 4.4384461944e-05 4.4384461944e-05 4.4384461944e-05 4.4384461944e-05 
4.4384461944e-05 4.4384461944e-05 4.4384461944e-05 4.4384461944e-05 4.4384461944e-05 4.4384461944e-05 4.4384461944e-05 4.4384461944e-05 4.4384461944e-05 
4.4384461944e-05 4.4384461944e-05 4.4384461944e-05 4.4384461944e-05 4.4384461944e-05 4.4384461944e-05 4.4384461944e-05 4.4384461944e-05 4.4384461944e-05 
4.4384461944e-05 4.4384461944e-05 4.4384461944e-05 4.4384461944e-05 4.4384461944e-05 4.4384461944e-05 4.4384461944e-05 4.4384461944e-05 4.4384461944e-05 
4.4384461944e-05 4.4384461944e-05 4.4384461944e-05 4.4384461944e-05 4.4384461944e-05 4.4384461944e-05 4.4384461944e-05 4.4384461944e-05 4.4384461944e-05 
4.4384461944e-05 4.4384461944e-05 4.4384461944e-05 4.4384461944e-05 4.4384461944e-05 4.4384461944e-05 4.4384461944e-05 4.4384461944e-05 4.4384461944e-05 
4.4384461944e-05 4.4384461944e-05 4.4384461944e-05 4.4384461944e-05 4.4384461944e-05 4.4384461944e-05 4.4384461944e-05 4.4384461944e-05 4.4384461944e-05 
4.4384461944e-05 4.4384461944e-05 4.4384461944e-05 4.4384461944e-05 4.4384461944e-05 4.4384461944e-05 4.4384461944e-05 4.4384461944e-05 4.4384461944e-05 
4.4384461944e-05 4.4384461944e-05 4.4384461944e-05 4.4384461944e-05 4.4384461944e-05 4.4384461944e-05 4.4384461944e-05 4.4384461944e-05 4.4384461944e-05 
4.4384461944e-05 4.4384461944e-05 4.4384461944e-05 4.4384461944e-05 4.4384461944e-05 4.4384461944e-05 4.4384461944e-05 4.4384461944e-05 4.4384461944e-05 
4.4384461944e-05 4.4384461944e-05 4.4384461944e-05 4.4384461944e-05 4.4384461944e-05 4.4384461944e-05 4.4384461944e-05 4.4384461944e-05 4.4384461944e-05 
4.4384461944e-05 0.0011839384679 0.00089249201119 0.00060098734684 4.4384461944e-05 4.4384461944e-05 4.4384461944e-05 4.4384461944e-05 4.4384461944e-05 
4.4384461944e-05 4.4384461944e-05 4.4384461944e-05 4.4384461944e-05 4.4384461944e-05 4.4384461944e-05 4.4384461944e-05 4.4384461944e-05 4.4384461944e-05 
4.4384461944e-05 4.4384461944e-05 4.4384461944e-05 4.4384461944e-05 4.4384461944e-05 4.4384461944e-05 4.4384461944e-05 4.4384461944e-05 4.4384461944e-05 
4.4384461944e-05 4.4384461944e-05 4.4384461944e-05 4.4384461944e-05 4.4384461944e-05 4.4384461944e-05 4.4384461944e-05 4.4384461944e-05 4.4384461944e-05 
4.4384461944e-05 4.4384461944e-05 4.4384461944e-05 4.4384461944e-05 4.4384461944e-05 4.4384461944e-05 4.4384461944e-05 4.4384461944e-05 4.4384461944e-05 
4.4384461944e-05 4.4384461944e-05 4.4384461944e-05 4.4384461944e-05 4.4384461944e-05 4.4384461944e-05 4.4384461944e-05 4.4384461944e-05 4.4384461944e-05 
4.4384461944e-05 4.4384461944e-05 4.4384461944e-05 4.4384461944e-05 4.4384461944e-05 4.4384461944e-05 0.00089971337002 0.0020056564827 0.0016880319454 
0.0013051164569 0.00055744871497 4.4384461944e-05 4.4384461944e-05 4.4384461944e-05 4.4384461944e-05 4.4384461944e-05 4.4384461944e-05 4.4384461944e-05 
4.4384461944e-05 4.4384461944e-05 4.4384461944e-05 4.4384461944e-05 4.4384461944e-05 4.4384461944e-05 4.4384461944e-05 4.4384461944e-05 4.4384461944e-05 
4.4384461944e-05 4.4384461944e-05 4.4384461944e-05 4.4384461944e-05 4.4384461944e-05 4.4384461944e-05 4.4384461944e-05 4.4384461944e-05 4.4384461944e-05 
4.4384461944e-05 0.006240522489 4.4384461944e-05 4.4384461944e-05 4.4384461944e-05 4.4384461944e-05 4.4384461944e-05 4.4384461944e-05 4.4384461944e-05 
4.4384461944e-05 4.4384461944e-05 4.4384461944e-05 4.4384461944e-05 4.4384461944e-05 4.4384461944e-05 4.4384461944e-05 4.4384461944e-05 4.4384461944e-05 
4.4384461944e-05 4.4384461944e-05 4.4384461944e-05 4.4384461944e-05 4.4384461944e-05 4.4384461944e-05 4.4384461944e-05 4.4384461944e-05 4.4384461944e-05 
4.4384461944e-05 4.4384461944e-05 0.00049669994041 4.4384461944e-05 0.0024187264498 0.0019351351075 0.0037865669001 0.0035478789359 0.0017161879223 
0.0010704537854 4.4384461944e-05 4.4384461944e-05 4.4384461944e-05 4.4384461944e-05 4.4384461944e-05 4.4384461944e-05 4.4384461944e-05 4.4384461944e-05 
4.4384461944e-05 4.4384461944e-05 4.4384461944e-05 4.4384461944e-05 4.4384461944e-05 4.4384461944e-05 4.4384461944e-05 4.4384461944e-05 4.4384461944e-05 
4.4384461944e-05 4.4384461944e-05 4.4384461944e-05 4.4384461944e-05 4.4384461944e-05 4.4384461944e-05 4.4384461944e-05 0.0069593698718 4.4384461944e-05 
4.4384461944e-05 4.4384461944e-05 4.4384461944e-05 4.4384461944e-05 4.4384461944e-05 4.4384461944e-05 4.4384461944e-05 4.4384461944e-05 4.4384461944e-05 
4.4384461944e-05 4.4384461944e-05 4.4384461944e-05 4.4384461944e-05 4.4384461944e-05 4.4384461944e-05 4.4384461944e-05 4.4384461944e-05 4.4384461944e-05 
4.4384461944e-05 4.4384461944e-05 4.4384461944e-05 4.4384461944e-05 4.4384461944e-05 4.4384461944e-05 4.4384461944e-05 4.4384461944e-05 4.4384461944e-05 
0.00097422051476 0.00075915566413 0.00056391803082 0.0044063767418 0.0026622556616 0.0015726163983 0.0042446139269 0.002026664326 0.0037129754201 
0.0050266021863 0.0035326504149 0.004073346965 0.0050841979682 0.0015255038161 0.0027664601803 0.0029500660021 0.00050267099869 0.0010568364523 
0.001396399457 4.4384461944e-05 4.4384461944e-05 4.4384461944e-05 4.4384461944e-05 4.4384461944e-05 4.4384461944e-05 4.4384461944e-05 4.4384461944e-05 
4.4384461944e-05 4.4384461944e-05 4.4384461944e-05 4.4384461944e-05 4.4384461944e-05 4.4384461944e-05 4.4384461944e-05 4.4384461944e-05 4.4384461944e-05 
4.4384461944e-05 4.4384461944e-05 4.4384461944e-05 4.4384461944e-05 4.4384461944e-05 4.4384461944e-05 4.4384461944e-05 4.4384461944e-05 4.4384461944e-05 
4.4384461944e-05 4.4384461944e-05 4.4384461944e-05 4.4384461944e-05 4.4384461944e-05 4.4384461944e-05 4.4384461944e-05 4.4384461944e-05 4.4384461944e-05 
4.4384461944e-05 4.4384461944e-05 4.4384461944e-05 4.4384461944e-05 0.0024246976245 0.0022106328979 0.0033504529856 0.0036052982323 0.0034614540637 
0.0096841491759 0.0084678456187 0.0059141847305 0.0065265661106 0.0044066850096 0.004470908083 0.0044878092594 0.0030127670616 0.0052174930461 
0.0051327152178 0.0017467277357 0.0027324780822 0.0016551044537 0.00027354888152 0.0019924922381 0.0019158323994 0.00030320510268 0.0018140586326 
0.0035005107056 4.4384461944e-05 4.4384461944e-05 4.4384461944e-05 4.4384461944e-05 4.4384461944e-05 4.4384461944e-05 4.4384461944e-05 4.4384461944e-05 
4.4384461944e-05 0.0038502102252 4.4384461944e-05 4.4384461944e-05 4.4384461944e-05 4.4384461944e-05 4.4384461944e-05 4.4384461944e-05 4.4384461944e-05 
4.4384461944e-05 4.4384461944e-05 4.4384461944e-05 4.4384461944e-05 4.4384461944e-05 4.4384461944e-05 4.4384461944e-05 4.4384461944e-05 4.4384461944e-05 
4.4384461944e-05 4.4384461944e-05 4.4384461944e-05 4.4384461944e-05 4.4384461944e-05 4.4384461944e-05 4.4384461944e-05 0.00052198494086 4.4384461944e-05 
0.00038888171548 0.0043791234493 0.0028206927236 0.0070535964333 0.0067203920335 0.0038025211543 0.012735284865 0.011225672439 0.007030332461 
0.0095003247261 0.00509743765 0.0039805541746 0.0063665797934 0.0036369811278 0.005284243729 0.007627371233 0.0023002030794 0.0026351271663 
0.0019210072933 0.00087903637905 0.0023466728162 0.0021880129352 0.0010742872255 0.0025552175939 0.0042988085188 4.4384461944e-05 0.00058206816902 
0.0012607261306 4.4384461944e-05 4.4384461944e-05 4.4384461944e-05 4.4384461944e-05 4.4384461944e-05 4.4384461944e-05 4.4384461944e-05 4.4384461944e-05 
4.4384461944e-05 4.4384461944e-05 4.4384461944e-05 4.4384461944e-05 4.4384461944e-05 4.4384461944e-05 4.4384461944e-05 4.4384461944e-05 4.4384461944e-05 
4.4384461944e-05 4.4384461944e-05 4.4384461944e-05 4.4384461944e-05 4.4384461944e-05 4.4384461944e-05 4.4384461944e-05 4.4384461944e-05 4.4384461944e-05 
4.4384461944e-05 4.4384461944e-05 4.4384461944e-05 4.4384461944e-05 0.0033862984274 0.00038380647311 0.0023293104023 0.003565690713 0.0049267872237 
0.0084532471374 0.0090016275644 0.0067047798075 0.0093705235049 0.0077198706567 0.0057555199601 0.0079410839826 0.0059591210447 0.0054000033997 
0.006241440773 0.0039368369617 0.0059557124041 0.0071686096489 0.0051846746355 0.0049587897956 0.0034355616663 0.0027944780886 0.0028274101205 
0.0035152353812 0.0017095926451 0.0041726147756 0.00429547159 4.4384461944e-05 4.4384461944e-05 0.00046971719712 4.4384461944e-05 4.4384461944e-05 
4.4384461944e-05 4.4384461944e-05 4.4384461944e-05 4.4384461944e-05 4.4384461944e-05 4.4384461944e-05 4.4384461944e-05 4.4384461944e-05 4.4384461944e-05 
4.4384461944e-05 4.4384461944e-05 4.4384461944e-05 4.4384461944e-05 4.4384461944e-05 4.4384461944e-05 4.4384461944e-05 4.4384461944e-05 4.4384461944e-05 
4.4384461944e-05 4.4384461944e-05 4.4384461944e-05 4.4384461944e-05 4.4384461944e-05 4.4384461944e-05 4.4384461944e-05 4.4384461944e-05 4.4384461944e-05 
4.4384461944e-05 0.002146217972 4.4384461944e-05 0.0041498336941 0.0056120539084 0.0074203643017 0.00855522044 0.0066942381673 0.0049052420072 
0.0075942967087 0.0064934394322 0.0059539377689 0.004500830546 0.0036244485527 4.4384461944e-05 0.0031043030322 0.0025794187095 0.004823025316 
0.003577274736 0.0022000302561 0.0020652951207 0.0014628730714 0.0011462045368 0.0014815327013 0.0014779107878 0.0029211251531 0.0028487283271 
0.003047672566 0.0014904009877 0.0006578961038 4.4384461944e-05 4.4384461944e-05 4.4384461944e-05 4.4384461944e-05 4.4384461944e-05 4.4384461944e-05 
4.4384461944e-05 0.0020941458642 4.4384461944e-05 4.4384461944e-05 4.4384461944e-05 4.4384461944e-05 4.4384461944e-05 4.4384461944e-05 4.4384461944e-05 
4.4384461944e-05 4.4384461944e-05 4.4384461944e-05 4.4384461944e-05 4.4384461944e-05 4.4384461944e-05 4.4384461944e-05 4.4384461944e-05 4.4384461944e-05 
4.4384461944e-05 4.4384461944e-05 4.4384461944e-05 4.4384461944e-05 4.4384461944e-05 4.4384461944e-05 4.4384461944e-05 0.0028058232274 4.4384461944e-05 
0.002437801566 0.0014495602809 0.0015526820207 0.0044852793217 0.0041914773174 0.0036190093961 0.00417823717 0.0028281679843 0.0022779994179 
0.0031941805501 0.0024003572762 0.0025820762385 0.0028265896253 0.00055896193953 -0.0014737355523 0.0018732280005 0.0011842612876 0.00061471090885 
0.0015622986248 0.0018428068142 0.001011090586 0.0011572377989 0.00039812980685 0.00036941736471 0.00060648279032 0.0005511007621 4.4384461944e-05 
4.4384461944e-05 4.4384461944e-05 4.4384461944e-05 4.4384461944e-05 4.4384461944e-05 0.0074065299705 4.4384461944e-05 0.0037874050904 4.4384461944e-05 
4.4384461944e-05 4.4384461944e-05 4.4384461944e-05 4.4384461944e-05 4.4384461944e-05 4.4384461944e-05 4.4384461944e-05 4.4384461944e-05 4.4384461944e-05 
4.4384461944e-05 4.4384461944e-05 4.4384461944e-05 4.4384461944e-05 4.4384461944e-05 4.4384461944e-05 4.4384461944e-05 4.4384461944e-05 4.4384461944e-05 
4.4384461944e-05 4.4384461944e-05 4.4384461944e-05 4.4384461944e-05 4.4384461944e-05 4.4384461944e-05 4.4384461944e-05 4.4384461944e-05 0.0011880092788 
4.4384461944e-05 4.4384461944e-05 -0.0013360157609 -0.0017733052373 -0.00074457662413 -0.0010638178792 0.0043040472083 0.0080380253494 0.0071859490126 
-0.0030880488921 0.0039994469844 -0.0010029566474 0.0039111394435 0.0052409530617 0.0074290451594 0.0026559259277 0.0058176377788 0.0094877416268 
0.0076815099455 0.01661946252 -0.0013440353796 -0.00094631133834 0.0016672280617 0.000395898649 4.4384461944e-05 4.4384461944e-05 4.4384461944e-05 
4.4384461944e-05 4.4384461944e-05 0.0072035263292 0.0054773516022 4.4384461944e-05 4.4384461944e-05 4.4384461944e-05 4.4384461944e-05 4.4384461944e-05 
4.4384461944e-05 4.4384461944e-05 4.4384461944e-05 4.4384461944e-05 4.4384461944e-05 4.4384461944e-05 4.4384461944e-05 4.4384461944e-05 4.4384461944e-05 
4.4384461944e-05 4.4384461944e-05 4.4384461944e-05 4.4384461944e-05 4.4384461944e-05 4.4384461944e-05 4.4384461944e-05 4.4384461944e-05 4.4384461944e-05 
4.4384461944e-05 0.0011083879508 4.4384461944e-05 4.4384461944e-05 4.4384461944e-05 -9.6127507277e-05 0.0037543722428 -0.00055563688511 8.8481654529e-05 
-0.00072665984044 4.4384461944e-05 4.4384461944e-05 -0.00015547360817 4.4384461944e-05 4.4384461944e-05 -0.00061979010934 -0.0026455675252 -0.0026228963397 
0.00074944779044 4.4384461944e-05 4.4384461944e-05 4.4384461944e-05 4.4384461944e-05 4.4384461944e-05 0.0012324564159 0.013650906272 4.852325219e-05 
0.0065161846578 0.008563789539 4.4384461944e-05 4.4384461944e-05 4.4384461944e-05 4.4384461944e-05 4.4384461944e-05 -0.0023136581294 0.024889500812 
4.4384461944e-05 0.0082507524639 4.4384461944e-05 4.4384461944e-05 4.4384461944e-05 4.4384461944e-05 4.4384461944e-05 4.4384461944e-05 4.4384461944e-05 
4.4384461944e-05 4.4384461944e-05 4.4384461944e-05 4.4384461944e-05 4.4384461944e-05 4.4384461944e-05 4.4384461944e-05 4.4384461944e-05 4.4384461944e-05 
4.4384461944e-05 4.4384461944e-05 4.4384461944e-05 4.4384461944e-05 0.23603634536 0.053573388606 4.4384461944e-05 4.4384461944e-05 4.4384461944e-05 
4.4384461944e-05 4.4384461944e-05 -0.0020665186457 0.0012253811583 0.00057641178137 0.00068571179872 0.00050270132488 -2.8115144232e-05 4.4384461944e-05 
-0.0035219117999 4.4384461944e-05 -0.0031137554906 0.0022318768315 0.004594202619 0.0041744555347 0.0037805340253 -0.0036046789028 -0.0039830561727 
-0.0031355745159 0.0027821180411 4.4384461944e-05 0.0014763898216 0.017165193334 0.0071888579987 0.011833390221 0.0025182412937 0.0030011245981 
0.0044082826935 4.4384461944e-05 4.4384461944e-05 4.4384461944e-05 4.4384461944e-05 0.7541769743 0.010111647658 0.0059287897311 4.4384461944e-05 
4.4384461944e-05 0.0066427323036 4.4384461944e-05 4.4384461944e-05 4.4384461944e-05 4.4384461944e-05 4.4384461944e-05 4.4384461944e-05 4.4384461944e-05 
4.4384461944e-05 4.4384461944e-05 4.4384461944e-05 4.4384461944e-05 4.4384461944e-05 4.4384461944e-05 4.4384461944e-05 4.4384461944e-05 4.4384461944e-05 
0.00040866190102 0.083567857742 0.13995425403 4.4384461944e-05 4.4384461944e-05 4.4384461944e-05 4.4384461944e-05 4.4384461944e-05 -0.00075210287469 
4.4384461944e-05 0.0024617570452 0.0064498833381 0.0010736188851 0.0046905982308 4.4384461944e-05 0.00027902185684 4.4384461944e-05 4.4384461944e-05 
-2.9726463254e-05 2.7869318728e-05 -0.0020445580594 0.001700644847 0.005574983079 0.002840241883 0.0011655702256 -0.0018629928818 0.0051767094992 
0.015771402046 0.022695431486 0.0073148864321 0.0086802290753 0.0054122335277 0.0040078926831 4.4384461944e-05 0.0042070858181 4.4384461944e-05 
4.4384461944e-05 4.4384461944e-05 0.14790502191 0.10424601287 0.022244179621 4.4384461944e-05 4.4384461944e-05 4.4384461944e-05 4.4384461944e-05 
4.4384461944e-05 4.4384461944e-05 4.4384461944e-05 4.4384461944e-05 4.4384461944e-05 4.4384461944e-05 4.4384461944e-05 4.4384461944e-05 4.4384461944e-05 
4.4384461944e-05 4.4384461944e-05 4.4384461944e-05 4.4384461944e-05 4.4384461944e-05 4.4384461944e-05 4.4384461944e-05 4.4384461944e-05 4.4384461944e-05 
4.4384461944e-05 4.4384461944e-05 0.002279558219 4.4384461944e-05 0.0035076015629 0.0056659276597 0.0053924419917 0.0094131920487 0.012517535128 
0.017028054222 0.02060059458 0.01303558331 0.017372343689 0.020081564784 0.027197582647 0.027683792636 0.028241068125 0.026951232925 
0.029768129811 0.021620295942 0.017584634945 0.020991152152 0.031456049532 0.026339249685 0.036474179476 0.043503843248 0.021942844614 
0.028988106176 0.0079020699486 0.0072232647799 0.01156255696 0.0090738413855 4.4384461944e-05 4.4384461944e-05 4.4384461944e-05 4.4384461944e-05 
4.4384461944e-05 4.4384461944e-05 4.4384461944e-05 4.4384461944e-05 0.0021806661971 4.4384461944e-05 4.4384461944e-05 4.4384461944e-05 4.4384461944e-05 
4.4384461944e-05 4.4384461944e-05 4.4384461944e-05 4.4384461944e-05 4.4384461944e-05 4.4384461944e-05 4.4384461944e-05 4.4384461944e-05 4.4384461944e-05 
4.4384461944e-05 4.4384461944e-05 4.4384461944e-05 4.4384461944e-05 0.0032586224843 4.4384461944e-05 4.4384461944e-05 4.4384461944e-05 0.0025851405226 
0.002407341497 0.0044872001745 0.0060780546628 0.0092866066843 0.010732292198 0.025584565476 0.026401842013 0.03245858103 0.024759510532 
0.030389642343 0.030732288957 0.029043858871 0.035627037287 0.027405401692 0.010441699065 0.042697224766 0.027690427378 0.026624627411 
0.030843742192 0.028303459287 0.031171821058 0.034275416285 0.052154939622 0.040727954358 0.037863835692 0.033247604966 0.022228568792 
0.018060633913 4.4384461944e-05 4.4384461944e-05 4.4384461944e-05 4.4384461944e-05 4.4384461944e-05 4.4384461944e-05 4.4384461944e-05 4.4384461944e-05 
4.4384461944e-05 4.4384461944e-05 4.4384461944e-05 4.4384461944e-05 4.4384461944e-05 4.4384461944e-05 4.4384461944e-05 4.4384461944e-05 4.4384461944e-05 
4.4384461944e-05 4.4384461944e-05 4.4384461944e-05 4.4384461944e-05 4.4384461944e-05 4.4384461944e-05 4.4384461944e-05 4.4384461944e-05 4.4384461944e-05 
4.4384461944e-05 4.4384461944e-05 4.4384461944e-05 4.4384461944e-05 4.4384461944e-05 0.0068221651018 0.0062823430635 0.0080851949751 0.0099632674828 
0.007227641996 0.012839057483 0.031045200303 0.030139859766 0.035522952676 0.029342278838 0.034837070853 0.030983835459 0.033318448812 
0.037405982614 0.033994894475 0.031833216548 0.044304985553 0.029935866594 0.02779068239 0.032412897795 0.031006310135 0.025090053678 
0.041811063886 0.053507845849 0.037491567433 0.034329857677 0.024568494409 0.022404544055 0.021276397631 0.016875257716 0.0026700051967 
4.4384461944e-05 0.017000999302 4.4384461944e-05 4.4384461944e-05 4.4384461944e-05 4.4384461944e-05 4.4384461944e-05 4.4384461944e-05 4.4384461944e-05 
4.4384461944e-05 4.4384461944e-05 4.4384461944e-05 4.4384461944e-05 4.4384461944e-05 4.4384461944e-05 4.4384461944e-05 4.4384461944e-05 4.4384461944e-05 
4.4384461944e-05 4.4384461944e-05 4.4384461944e-05 4.4384461944e-05 4.4384461944e-05 4.4384461944e-05 4.4384461944e-05 4.4384461944e-05 4.4384461944e-05 
4.4384461944e-05 4.4384461944e-05 0.0084189549088 0.0097740059718 0.012977122329 0.012650718912 0.010548944585 0.015344171785 0.026396619156 
0.027496676892 0.040965899825 0.04001911357 0.03803614527 0.04658151418 0.043615501374 0.032650403678 0.031827181578 0.019978323951 
0.039703521878 0.052630614489 0.036094333977 0.051462650299 0.03751123324 0.042227864265 0.046536840498 0.053136434406 0.037253540009 
0.035667046905 0.029871288687 0.02331481874 0.020360441878 0.014855396934 0.0048127728514 4.4384461944e-05 0.013537337072 4.4384461944e-05 
4.4384461944e-05 4.4384461944e-05 4.4384461944e-05 4.4384461944e-05 4.4384461944e-05 4.4384461944e-05 4.4384461944e-05 4.4384461944e-05 4.4384461944e-05 
4.4384461944e-05 4.4384461944e-05 4.4384461944e-05 4.4384461944e-05 4.4384461944e-05 4.4384461944e-05 4.4384461944e-05 4.4384461944e-05 4.4384461944e-05 
4.4384461944e-05 4.4384461944e-05 4.4384461944e-05 4.4384461944e-05 4.4384461944e-05 4.4384461944e-05 4.4384461944e-05 4.4384461944e-05 0.011097057723 
0.011408257298 0.017653455958 0.017261171713 0.014083585702 0.019866934046 0.025687232614 0.022463001311 0.045215383172 0.041229080409 
0.034889772534 0.047346342355 0.030140761286 0.025456598029 0.022562850267 0.016757944599 0.032194517553 0.04402320087 0.051028747112 
0.058535270393 0.056848037988 0.054121769965 0.041965607554 0.044968552887 0.036841820925 0.036491457373 0.030434673652 0.022225661203 
0.019868886098 0.014006999321 0.0096082463861 4.4384461944e-05 0.014563460834 4.4384461944e-05 4.4384461944e-05 4.4384461944e-05 4.4384461944e-05 
4.4384461944e-05 4.4384461944e-05 4.4384461944e-05 4.4384461944e-05 4.4384461944e-05 4.4384461944e-05 4.4384461944e-05 4.4384461944e-05 4.4384461944e-05 
4.4384461944e-05 4.4384461944e-05 4.4384461944e-05 4.4384461944e-05 4.4384461944e-05 4.4384461944e-05 4.4384461944e-05 4.4384461944e-05 4.4384461944e-05 
4.4384461944e-05 4.4384461944e-05 4.4384461944e-05 4.4384461944e-05 4.4384461944e-05 0.006872009486 0.012219033204 0.022192943841 0.0237721093 
0.017648877576 0.020757349208 0.022473702207 0.028585465625 0.039666134864 0.038019198924 0.036231078207 0.057199608535 0.045217834413 
0.031848445535 0.040384177119 0.03423178196 0.036454632878 0.060473468155 0.051026452333 0.047209028155 0.046806022525 0.038542576134 
0.041206672788 0.034554332495 0.029472695664 0.026963720098 0.022645873949 0.013459376991 0.012657732703 0.0095502771437 0.0073853419162 
0.0001106151758 4.4384461944e-05 4.4384461944e-05 4.4384461944e-05 4.4384461944e-05 4.4384461944e-05 4.4384461944e-05 4.4384461944e-05 4.4384461944e-05 
4.4384461944e-05 4.4384461944e-05 4.4384461944e-05 4.4384461944e-05 4.4384461944e-05 4.4384461944e-05 4.4384461944e-05 4.4384461944e-05 4.4384461944e-05 
4.4384461944e-05 4.4384461944e-05 4.4384461944e-05 4.4384461944e-05 4.4384461944e-05 4.4384461944e-05 4.4384461944e-05 4.4384461944e-05 4.4384461944e-05 
4.4384461944e-05 4.4384461944e-05 4.4384461944e-05 4.4384461944e-05 0.012660785578 0.015752980486 0.014907087199 0.023195290938 0.032703693956 
0.036045607179 0.044596042484 0.042083054781 0.047487638891 0.054959062487 0.054655525833 0.04129903391 0.036605734378 0.034813638777 
0.036245610565 0.049919005483 0.044105861336 0.046792816371 0.041171185672 0.036065489054 0.035672325641 0.029869757593 0.026847291738 
0.019038172439 0.011726655066 0.0031310576014 0.005825039465 0.012386440299 0.0063806758262 4.4384461944e-05 0.0055176243186 4.4384461944e-05 
4.4384461944e-05 4.4384461944e-05 4.4384461944e-05 4.4384461944e-05 4.4384461944e-05 4.4384461944e-05 4.4384461944e-05 4.4384461944e-05 4.4384461944e-05 
4.4384461944e-05 4.4384461944e-05 4.4384461944e-05 4.4384461944e-05 4.4384461944e-05 4.4384461944e-05 4.4384461944e-05 4.4384461944e-05 4.4384461944e-05 
4.4384461944e-05 4.4384461944e-05 4.4384461944e-05 4.4384461944e-05 4.4384461944e-05 4.4384461944e-05 4.4384461944e-05 4.4384461944e-05 4.4384461944e-05 
4.4384461944e-05 0.0091526582837 0.0090490076691 0.011262046173 0.016786484048 0.028002642095 0.027106627822 0.027702087536 0.024527844042 
0.02813867107 0.026857480407 0.028828023002 0.033282298595 0.029828149825 0.031969506294 0.032171245664 0.029850451276 0.029243385419 
0.031110247597 0.025391468778 0.023189632222 0.023974584416 0.024962609634 0.018014900386 0.014255671762 0.0083555402234 0.0031248363666 
0.0069121322595 0.011884475127 0.0025725075975 4.4384461944e-05 4.4384461944e-05 4.4384461944e-05 4.4384461944e-05 4.4384461944e-05 4.4384461944e-05 
4.4384461944e-05 4.4384461944e-05 4.4384461944e-05 4.4384461944e-05 4.4384461944e-05 4.4384461944e-05 4.4384461944e-05 4.4384461944e-05 4.4384461944e-05 
4.4384461944e-05 4.4384461944e-05 4.4384461944e-05 4.4384461944e-05 4.4384461944e-05 4.4384461944e-05 4.4384461944e-05 4.4384461944e-05 4.4384461944e-05 
4.4384461944e-05 4.4384461944e-05 4.4384461944e-05 4.4384461944e-05 4.4384461944e-05 4.4384461944e-05 0.0036951464135 0.0080515081063 0.012853053398 
0.013410169631 0.017293361947 0.023274559528 0.023514505476 0.023199431598 0.023135760799 0.02448233217 0.023288516328 0.023294741288 
0.025784917176 0.023790052161 0.026520175859 0.024392869323 0.023347806185 0.023984134197 0.027473066002 0.022413531318 0.019473804161 
0.0190984644 0.018161917105 0.014028157108 0.011530660093 0.010022396222 0.0068007404916 0.0067917942069 0.002889377065 4.4384461944e-05 
4.4384461944e-05 4.4384461944e-05 4.4384461944e-05 4.4384461944e-05 4.4384461944e-05 4.4384461944e-05 4.4384461944e-05 4.4384461944e-05 4.4384461944e-05 
4.4384461944e-05 4.4384461944e-05 4.4384461944e-05 4.4384461944e-05 4.4384461944e-05 4.4384461944e-05 4.4384461944e-05 4.4384461944e-05 4.4384461944e-05 
4.4384461944e-05 4.4384461944e-05 4.4384461944e-05 4.4384461944e-05 4.4384461944e-05 4.4384461944e-05 4.4384461944e-05 4.4384461944e-05 4.4384461944e-05 
4.4384461944e-05 4.4384461944e-05 4.4384461944e-05 4.4384461944e-05 0.0072793378495 0.01216689311 0.015543946996 0.014415496029 0.015938187018 
0.023371392861 0.023152427748 0.023993654177 0.024455415085 0.023834250867 0.027551436797 0.029815971851 0.024435823783 0.026779837906 
0.029391119257 0.025460965931 0.024179676548 0.024712948129 0.019543824717 0.017374405637 0.018340827897 0.015587386675 0.014630183578 
0.014082934707 0.0072517120279 0.0048372261226 0.0062393485568 0.0024565851782 4.4384461944e-05 4.4384461944e-05 4.4384461944e-05 4.4384461944e-05 
4.4384461944e-05 4.4384461944e-05 4.4384461944e-05 4.4384461944e-05 4.4384461944e-05 4.4384461944e-05 4.4384461944e-05 4.4384461944e-05 4.4384461944e-05 
4.4384461944e-05 0.0019841105677 0.0023887513671 4.4384461944e-05 4.4384461944e-05 0.0045677125454 0.0036998002324 0.0029358016327 0.0021458680276 
4.4384461944e-05 4.4384461944e-05 4.4384461944e-05 4.4384461944e-05 4.4384461944e-05 4.4384461944e-05 4.4384461944e-05 4.4384461944e-05 4.4384461944e-05 
4.4384461944e-05 4.4384461944e-05 0.0069899722002 0.0051306425594 0.0031521371566 0.0083509469405 0.014865642413 0.015700398013 0.017388379201 
0.021481962875 0.019858131185 0.021826244891 0.024261990562 0.017343111336 0.019794067368 0.022679803893 0.018274312839 0.017645144835 
0.019120031968 0.0099004777148 0.0094376364723 0.013764246367 0.011748905294 0.0095562878996 0.0096592633054 0.0043630884029 0.00083342375001 
0.00069663272006 0.0094431061298 4.4384461944e-05 4.4384461944e-05 4.4384461944e-05 4.4384461944e-05 4.4384461944e-05 4.4384461944e-05 4.4384461944e-05 
4.4384461944e-05 4.4384461944e-05 4.4384461944e-05 4.4384461944e-05 4.4384461944e-05 4.4384461944e-05 4.4384461944e-05 0.00055774481734 0.002551038051 
4.4384461944e-05 0.0015241348883 0.0084583517164 0.0071806027554 0.0067091607489 0.007091447711 0.0026221484877 4.4384461944e-05 4.4384461944e-05 
4.4384461944e-05 4.4384461944e-05 4.4384461944e-05 4.4384461944e-05 4.4384461944e-05 4.4384461944e-05 4.4384461944e-05 4.4384461944e-05 4.4384461944e-05 
4.4384461944e-05 4.4384461944e-05 0.0064016710967 0.016413370147 0.011192235164 0.010421058163 0.018687119707 0.026853905991 0.041956428438 
0.014243992046 0.0072466675192 0.010528833605 0.012105403468 0.042239673436 0.029031319544 0.017360473052 0.0048447283916 0.0042092422955 
0.0105351815 0.0094988765195 0.0055397041142 0.0060159061104 0.00086058391025 4.4384461944e-05 4.4384461944e-05 4.4384461944e-05 4.4384461944e-05 
4.4384461944e-05 4.4384461944e-05 4.4384461944e-05 4.4384461944e-05 4.4384461944e-05 4.4384461944e-05 4.4384461944e-05 4.4384461944e-05 4.4384461944e-05 
4.4384461944e-05 4.4384461944e-05 4.4384461944e-05 0.0014606096083 0.0037466583308 0.0053130798042 0.00073705910472 0.0040090032853 0.010432127863 
0.0089241145179 0.0073217581958 0.0059755146503 0.0016114754835 4.4384461944e-05 4.4384461944e-05 4.4384461944e-05 4.4384461944e-05 4.4384461944e-05 
4.4384461944e-05 4.4384461944e-05 4.4384461944e-05 4.4384461944e-05 4.4384461944e-05 4.4384461944e-05 4.4384461944e-05 4.4384461944e-05 4.4384461944e-05 
0.010984038003 0.0069346879609 0.0022218187805 0.0074746245518 0.019918965176 0.017613427714 0.012452680618 0.0088122123852 0.010438731872 
0.013082945719 0.014220999554 0.017328446731 0.011602748185 0.004842499271 0.0038874102756 0.0061155240983 0.010224705562 0.0076427464373 
0.0048843268305 0.0030909872148 4.4384461944e-05 4.4384461944e-05 4.4384461944e-05 4.4384461944e-05 4.4384461944e-05 4.4384461944e-05 4.4384461944e-05 
4.4384461944e-05 4.4384461944e-05 4.4384461944e-05 4.4384461944e-05 4.4384461944e-05 4.4384461944e-05 4.4384461944e-05 4.4384461944e-05 4.4384461944e-05 
4.4384461944e-05 0.0013126964914 0.0044638612308 0.0055144280195 0.0061770481989 0.011278359219 0.010632544756 0.0066613978706 0.0062157451175 
0.0036104423925 4.4384461944e-05 4.4384461944e-05 4.4384461944e-05 4.4384461944e-05 0.0013374224072 4.4384461944e-05 4.4384461944e-05 4.4384461944e-05 
4.4384461944e-05 4.4384461944e-05 4.4384461944e-05 4.4384461944e-05 4.4384461944e-05 4.4384461944e-05 0.021960355341 0.021216103807 0.020699352026 
0.015890417621 0.013797171414 0.016242019832 0.011700380594 0.0066850688308 0.0058082072064 0.011484508403 0.01508029364 0.013794062659 
0.0130359428 0.015494891442 0.014411765151 0.016758225858 0.0052701202221 0.0046092090197 0.0028460132889 4.4384461944e-05 4.4384461944e-05 
4.4384461944e-05 4.4384461944e-05 4.4384461944e-05 4.4384461944e-05 4.4384461944e-05 4.4384461944e-05 4.4384461944e-05 4.4384461944e-05 4.4384461944e-05 
4.4384461944e-05 4.4384461944e-05 4.4384461944e-05 4.4384461944e-05 4.4384461944e-05 4.4384461944e-05 4.4384461944e-05 4.4384461944e-05 0.00037393224193 